<?xml version="1.0" encoding="UTF-8"?>

<!-- generated on 10/01/20 13:14:24 by Eclipse SUMO GUI Version 1.7.0
<configuration xmlns:xsi="http://www.w3.org/2001/XMLSchema-instance" xsi:noNamespaceSchemaLocation="http://sumo.dlr.de/xsd/sumoConfiguration.xsd">

    <input>
        <net-file value="osm.net.xml"/>
        <route-files value="osm.passenger.trips.xml,osm.truck.trips.xml,osm.bus.trips.xml,osm.motorcycle.trips.xml,osm.bicycle.trips.xml,osm.pedestrian.rou.xml,osm.tram.trips.xml,osm.rail_urban.trips.xml,osm.rail.trips.xml,osm.ship.trips.xml"/>
        <additional-files value="osm.poly.xml"/>
    </input>

    <output>
        <tripinfo-output value="tripinfo.xml"/>
    </output>

    <processing>
        <ignore-route-errors value="true"/>
    </processing>

    <routing>
        <device.rerouting.adaptation-steps value="180"/>
    </routing>

    <report>
        <verbose value="true"/>
        <duration-log.statistics value="true"/>
        <no-step-log value="true"/>
    </report>

    <gui_only>
        <gui-settings-file value="osm.view.xml"/>
    </gui_only>

</configuration>
-->

<tripinfos xmlns:xsi="http://www.w3.org/2001/XMLSchema-instance" xsi:noNamespaceSchemaLocation="http://sumo.dlr.de/xsd/tripinfo_file.xsd">
    <tripinfo id="veh3" depart="9.00" departLane="171826985#0_4" departPos="5.10" departSpeed="0.00" departDelay="0.89" arrival="63.00" arrivalLane="-136571494#5_1" arrivalPos="78.45" arrivalSpeed="8.28" duration="54.00" routeLength="464.76" waitingTime="3.00" waitingCount="1" stopTime="0.00" timeLoss="15.44" rerouteNo="1" devices="tripinfo_veh3 routing_veh3" vType="veh_passenger" speedFactor="1.03" vaporized=""/>
    <tripinfo id="moto5" depart="41.00" departLane="-77348147_1" departPos="2.30" departSpeed="0.00" departDelay="0.43" arrival="100.00" arrivalLane="-24990040_1" arrivalPos="52.70" arrivalSpeed="7.89" duration="59.00" routeLength="497.66" waitingTime="0.00" waitingCount="0" stopTime="0.00" timeLoss="11.10" rerouteNo="1" devices="tripinfo_moto5 routing_moto5" vType="moto_motorcycle" speedFactor="1.03" vaporized=""/>
    <tripinfo id="bike6" depart="28.00" departLane="-132460631#0_0" departPos="1.70" departSpeed="0.00" departDelay="0.85" arrival="101.00" arrivalLane="-377215961#2_0" arrivalPos="41.91" arrivalSpeed="5.47" duration="73.00" routeLength="360.68" waitingTime="0.00" waitingCount="0" stopTime="0.00" timeLoss="7.22" rerouteNo="1" devices="tripinfo_bike6 routing_bike6" vType="bike_bicycle" speedFactor="0.97" vaporized=""/>
    <tripinfo id="moto8" depart="65.00" departLane="4612963_1" departPos="2.30" departSpeed="0.00" departDelay="0.09" arrival="109.00" arrivalLane="24992424#3_2" arrivalPos="32.88" arrivalSpeed="13.36" duration="44.00" routeLength="315.71" waitingTime="12.00" waitingCount="1" stopTime="0.00" timeLoss="19.96" rerouteNo="1" devices="tripinfo_moto8 routing_moto8" vType="moto_motorcycle" speedFactor="0.97" vaporized=""/>
    <tripinfo id="veh12" depart="33.00" departLane="4610476#2_1" departPos="5.10" departSpeed="0.00" departDelay="0.54" arrival="144.00" arrivalLane="35269774#2_1" arrivalPos="133.83" arrivalSpeed="14.82" duration="111.00" routeLength="1106.56" waitingTime="2.00" waitingCount="1" stopTime="0.00" timeLoss="23.68" rerouteNo="1" devices="tripinfo_veh12 routing_veh12" vType="veh_passenger" speedFactor="1.16" vaporized=""/>
    <tripinfo id="moto2" depart="17.00" departLane="-330840125#0_1" departPos="2.30" departSpeed="0.00" departDelay="0.77" arrival="155.00" arrivalLane="202156995#1_3" arrivalPos="45.42" arrivalSpeed="12.76" duration="138.00" routeLength="1269.92" waitingTime="13.00" waitingCount="2" stopTime="0.00" timeLoss="41.92" rerouteNo="1" devices="tripinfo_moto2 routing_moto2" vType="moto_motorcycle" speedFactor="0.98" vaporized=""/>
    <tripinfo id="bike23" depart="105.00" departLane="-194177692#1_0" departPos="1.70" departSpeed="0.00" departDelay="0.91" arrival="155.00" arrivalLane="-561049078_0" arrivalPos="46.81" arrivalSpeed="5.04" duration="50.00" routeLength="152.46" waitingTime="0.00" waitingCount="0" stopTime="0.00" timeLoss="5.78" rerouteNo="1" devices="tripinfo_bike23 routing_bike23" vType="bike_bicycle" speedFactor="1.00" vaporized=""/>
    <tripinfo id="bus3" depart="27.00" departLane="-310176513#9_1" departPos="12.10" departSpeed="4.69" departDelay="2.66" arrival="171.00" arrivalLane="202817674#3_2" arrivalPos="39.31" arrivalSpeed="8.18" duration="144.00" routeLength="1057.50" waitingTime="13.00" waitingCount="2" stopTime="0.00" timeLoss="47.13" rerouteNo="1" devices="tripinfo_bus3 routing_bus3" vType="bus_bus" speedFactor="1.00" vaporized=""/>
    <tripinfo id="urban0" depart="0.00" departLane="4471823#0_0" departPos="109.60" departSpeed="16.67" departDelay="0.00" arrival="173.00" arrivalLane="32590435_0" arrivalPos="454.65" arrivalSpeed="16.67" duration="173.00" routeLength="2867.50" waitingTime="0.00" waitingCount="0" stopTime="0.00" timeLoss="0.00" rerouteNo="1" devices="tripinfo_urban0 routing_urban0" vType="urban_rail_urban" speedFactor="1.00" vaporized=""/>
    <tripinfo id="veh2" depart="6.00" departLane="54048862#0_3" departPos="5.10" departSpeed="0.00" departDelay="0.59" arrival="174.00" arrivalLane="-195397561#0_1" arrivalPos="19.82" arrivalSpeed="8.59" duration="168.00" routeLength="1189.94" waitingTime="24.00" waitingCount="4" stopTime="0.00" timeLoss="61.35" rerouteNo="1" devices="tripinfo_veh2 routing_veh2" vType="veh_passenger" speedFactor="1.09" vaporized=""/>
    <tripinfo id="veh15" depart="41.00" departLane="4612961#0_3" departPos="5.10" departSpeed="0.00" departDelay="0.43" arrival="174.00" arrivalLane="29177662#1_2" arrivalPos="10.50" arrivalSpeed="12.65" duration="133.00" routeLength="957.15" waitingTime="18.00" waitingCount="1" stopTime="0.00" timeLoss="40.48" rerouteNo="1" devices="tripinfo_veh15 routing_veh15" vType="veh_passenger" speedFactor="0.98" vaporized=""/>
    <tripinfo id="veh17" depart="46.00" departLane="31313667#3_1" departPos="5.10" departSpeed="0.00" departDelay="0.02" arrival="176.00" arrivalLane="-165415464#1_1" arrivalPos="49.15" arrivalSpeed="5.77" duration="130.00" routeLength="644.40" waitingTime="13.00" waitingCount="1" stopTime="0.00" timeLoss="50.87" rerouteNo="1" devices="tripinfo_veh17 routing_veh17" vType="veh_passenger" speedFactor="0.83" vaporized=""/>
    <tripinfo id="truck3" depart="13.00" departLane="-310176513#9_1" departPos="6.60" departSpeed="8.33" departDelay="0.83" arrival="178.00" arrivalLane="202817674#3_2" arrivalPos="39.31" arrivalSpeed="7.95" duration="165.00" routeLength="1063.00" waitingTime="30.00" waitingCount="3" stopTime="0.00" timeLoss="66.77" rerouteNo="1" devices="tripinfo_truck3 routing_truck3" vType="truck_truck" speedFactor="1.00" vaporized=""/>
    <tripinfo id="veh7" depart="19.00" departLane="4610479#1_1" departPos="5.10" departSpeed="0.00" departDelay="0.07" arrival="181.00" arrivalLane="-111833185#0_1" arrivalPos="110.70" arrivalSpeed="7.33" duration="162.00" routeLength="988.93" waitingTime="21.00" waitingCount="2" stopTime="0.00" timeLoss="42.88" rerouteNo="1" devices="tripinfo_veh7 routing_veh7" vType="veh_passenger" speedFactor="0.93" vaporized=""/>
    <tripinfo id="moto7" depart="57.00" departLane="-194069450#0_1" departPos="2.30" departSpeed="0.00" departDelay="0.20" arrival="189.00" arrivalLane="-195104960#0_1" arrivalPos="35.02" arrivalSpeed="8.26" duration="132.00" routeLength="1154.22" waitingTime="0.00" waitingCount="0" stopTime="0.00" timeLoss="25.74" rerouteNo="1" devices="tripinfo_moto7 routing_moto7" vType="moto_motorcycle" speedFactor="1.02" vaporized=""/>
    <tripinfo id="veh24" depart="65.00" departLane="-292429062#1_2" departPos="5.10" departSpeed="0.00" departDelay="0.09" arrival="191.00" arrivalLane="35269774#2_1" arrivalPos="133.83" arrivalSpeed="15.64" duration="126.00" routeLength="1108.41" waitingTime="14.00" waitingCount="1" stopTime="0.00" timeLoss="43.80" rerouteNo="1" devices="tripinfo_veh24 routing_veh24" vType="veh_passenger" speedFactor="1.15" vaporized=""/>
    <tripinfo id="moto3" depart="25.00" departLane="-132600840#0_1" departPos="2.30" departSpeed="0.00" departDelay="0.66" arrival="195.00" arrivalLane="-339201177#0_0" arrivalPos="23.81" arrivalSpeed="2.60" duration="170.00" routeLength="1180.19" waitingTime="0.00" waitingCount="0" stopTime="0.00" timeLoss="54.72" rerouteNo="1" devices="tripinfo_moto3 routing_moto3" vType="moto_motorcycle" speedFactor="1.01" vaporized=""/>
    <tripinfo id="bike11" depart="50.00" departLane="-589906053#1_0" departPos="1.70" departSpeed="5.56" departDelay="0.22" arrival="201.00" arrivalLane="-292429062#3_1" arrivalPos="6.37" arrivalSpeed="5.37" duration="151.00" routeLength="617.39" waitingTime="25.00" waitingCount="2" stopTime="0.00" timeLoss="39.39" rerouteNo="1" devices="tripinfo_bike11 routing_bike11" vType="bike_bicycle" speedFactor="1.03" vaporized=""/>
    <tripinfo id="bike34" depart="154.00" departLane="-52348720#1_0" departPos="1.70" departSpeed="0.00" departDelay="0.13" arrival="207.00" arrivalLane="-52348718#0_0" arrivalPos="177.27" arrivalSpeed="5.45" duration="53.00" routeLength="260.23" waitingTime="0.00" waitingCount="0" stopTime="0.00" timeLoss="6.04" rerouteNo="1" devices="tripinfo_bike34 routing_bike34" vType="bike_bicycle" speedFactor="1.03" vaporized=""/>
    <tripinfo id="bike5" depart="23.00" departLane="-326116286#2_1" departPos="1.70" departSpeed="0.00" departDelay="0.37" arrival="212.00" arrivalLane="195411604_1" arrivalPos="29.32" arrivalSpeed="5.50" duration="189.00" routeLength="772.70" waitingTime="24.00" waitingCount="4" stopTime="0.00" timeLoss="49.78" rerouteNo="1" devices="tripinfo_bike5 routing_bike5" vType="bike_bicycle" speedFactor="0.96" vaporized=""/>
    <tripinfo id="veh9" depart="25.00" departLane="819027709#0_1" departPos="4.42" departSpeed="0.00" departDelay="0.66" arrival="213.00" arrivalLane="163368988#3_2" arrivalPos="7.13" arrivalSpeed="12.51" duration="188.00" routeLength="1331.96" waitingTime="48.00" waitingCount="4" stopTime="0.00" timeLoss="85.12" rerouteNo="1" devices="tripinfo_veh9 routing_veh9" vType="veh_passenger" speedFactor="0.94" vaporized=""/>
    <tripinfo id="moto4" depart="33.00" departLane="4610351#0_0" departPos="2.30" departSpeed="0.00" departDelay="0.54" arrival="213.00" arrivalLane="327518240#0_0" arrivalPos="25.57" arrivalSpeed="2.31" duration="180.00" routeLength="1255.05" waitingTime="24.00" waitingCount="3" stopTime="0.00" timeLoss="57.97" rerouteNo="1" devices="tripinfo_moto4 routing_moto4" vType="moto_motorcycle" speedFactor="1.09" vaporized=""/>
    <tripinfo id="truck2" depart="9.00" departLane="4773029#0_1" departPos="6.60" departSpeed="8.33" departDelay="0.89" arrival="214.00" arrivalLane="-19002363#3_1" arrivalPos="34.29" arrivalSpeed="7.52" duration="205.00" routeLength="1748.86" waitingTime="19.00" waitingCount="2" stopTime="0.00" timeLoss="48.27" rerouteNo="1" devices="tripinfo_truck2 routing_truck2" vType="truck_truck" speedFactor="1.00" vaporized=""/>
    <tripinfo id="truck28" depart="114.00" departLane="46140376#1_1" departPos="6.60" departSpeed="0.00" departDelay="0.40" arrival="221.00" arrivalLane="100405009#2_4" arrivalPos="27.85" arrivalSpeed="13.44" duration="107.00" routeLength="822.82" waitingTime="6.00" waitingCount="1" stopTime="0.00" timeLoss="22.26" rerouteNo="1" devices="tripinfo_truck28 routing_truck28" vType="truck_truck" speedFactor="1.00" vaporized=""/>
    <tripinfo id="veh6" depart="17.00" departLane="-437325054#1_1" departPos="5.10" departSpeed="0.00" departDelay="0.77" arrival="229.00" arrivalLane="25294729#1_1" arrivalPos="62.01" arrivalSpeed="7.08" duration="212.00" routeLength="1250.32" waitingTime="34.00" waitingCount="2" stopTime="0.00" timeLoss="64.69" rerouteNo="1" devices="tripinfo_veh6 routing_veh6" vType="veh_passenger" speedFactor="0.99" vaporized=""/>
    <tripinfo id="veh48" depart="130.00" departLane="4790799_1" departPos="5.10" departSpeed="14.12" departDelay="0.18" arrival="234.00" arrivalLane="-82658671#0_1" arrivalPos="33.81" arrivalSpeed="8.12" duration="104.00" routeLength="1203.82" waitingTime="0.00" waitingCount="0" stopTime="0.00" timeLoss="12.12" rerouteNo="1" devices="tripinfo_veh48 routing_veh48" vType="veh_passenger" speedFactor="1.02" vaporized=""/>
    <tripinfo id="bus1" depart="9.00" departLane="340498982#8_1" departPos="12.10" departSpeed="0.00" departDelay="0.89" arrival="236.00" arrivalLane="310176513#6_1" arrivalPos="58.84" arrivalSpeed="7.93" duration="227.00" routeLength="1794.07" waitingTime="46.00" waitingCount="2" stopTime="0.00" timeLoss="86.65" rerouteNo="1" devices="tripinfo_bus1 routing_bus1" vType="bus_bus" speedFactor="1.00" vaporized=""/>
    <tripinfo id="moto15" depart="122.00" departLane="111833186#2_1" departPos="2.30" departSpeed="0.00" departDelay="0.29" arrival="236.00" arrivalLane="-35578576#0_1" arrivalPos="0.20" arrivalSpeed="14.11" duration="114.00" routeLength="699.04" waitingTime="14.00" waitingCount="2" stopTime="0.00" timeLoss="36.48" rerouteNo="1" devices="tripinfo_moto15 routing_moto15" vType="moto_motorcycle" speedFactor="1.02" vaporized=""/>
    <tripinfo id="bike32" depart="145.00" departLane="461526152#0_1" departPos="1.70" departSpeed="0.00" departDelay="0.19" arrival="236.00" arrivalLane="4588217#2_1" arrivalPos="29.05" arrivalSpeed="5.50" duration="91.00" routeLength="457.89" waitingTime="0.00" waitingCount="0" stopTime="0.00" timeLoss="7.80" rerouteNo="1" devices="tripinfo_bike32 routing_bike32" vType="bike_bicycle" speedFactor="1.06" vaporized=""/>
    <tripinfo id="veh21" depart="57.00" departLane="153698402_1" departPos="5.10" departSpeed="9.43" departDelay="0.20" arrival="237.00" arrivalLane="-4610524_1" arrivalPos="108.38" arrivalSpeed="9.04" duration="180.00" routeLength="1559.55" waitingTime="18.00" waitingCount="2" stopTime="0.00" timeLoss="44.37" rerouteNo="1" devices="tripinfo_veh21 routing_veh21" vType="veh_passenger" speedFactor="1.13" vaporized=""/>
    <tripinfo id="bike9" depart="41.00" departLane="4610527_0" departPos="1.70" departSpeed="0.00" departDelay="0.27" arrival="237.00" arrivalLane="-111833185#0_1" arrivalPos="110.70" arrivalSpeed="5.50" duration="196.00" routeLength="959.68" waitingTime="4.00" waitingCount="1" stopTime="0.00" timeLoss="22.67" rerouteNo="1" devices="tripinfo_bike9 routing_bike9" vType="bike_bicycle" speedFactor="1.07" vaporized=""/>
    <tripinfo id="bike12" depart="55.00" departLane="718101395_0" departPos="1.70" departSpeed="5.56" departDelay="0.69" arrival="237.00" arrivalLane="104991251_0" arrivalPos="109.68" arrivalSpeed="5.31" duration="182.00" routeLength="923.01" waitingTime="1.00" waitingCount="1" stopTime="0.00" timeLoss="15.42" rerouteNo="1" devices="tripinfo_bike12 routing_bike12" vType="bike_bicycle" speedFactor="1.06" vaporized=""/>
    <tripinfo id="veh32" depart="87.00" departLane="4790799_0" departPos="5.10" departSpeed="15.31" departDelay="0.45" arrival="238.00" arrivalLane="136571494#4_1" arrivalPos="0.51" arrivalSpeed="3.69" duration="151.00" routeLength="1122.86" waitingTime="49.00" waitingCount="2" stopTime="0.00" timeLoss="69.91" rerouteNo="1" devices="tripinfo_veh32 routing_veh32" vType="veh_passenger" speedFactor="1.10" vaporized=""/>
    <tripinfo id="veh14" depart="38.00" departLane="156364570#1_2" departPos="5.10" departSpeed="0.00" departDelay="0.13" arrival="240.00" arrivalLane="246044848_2" arrivalPos="28.43" arrivalSpeed="12.76" duration="202.00" routeLength="1540.78" waitingTime="47.00" waitingCount="4" stopTime="0.00" timeLoss="82.70" rerouteNo="1" devices="tripinfo_veh14 routing_veh14" vType="veh_passenger" speedFactor="1.01" vaporized=""/>
    <tripinfo id="veh22" depart="60.00" departLane="-4790825#2_1" departPos="5.10" departSpeed="12.94" departDelay="0.50" arrival="240.00" arrivalLane="72157174#1_3" arrivalPos="70.62" arrivalSpeed="7.80" duration="180.00" routeLength="918.51" waitingTime="57.00" waitingCount="4" stopTime="0.00" timeLoss="104.74" rerouteNo="1" devices="tripinfo_veh22 routing_veh22" vType="veh_passenger" speedFactor="0.93" vaporized=""/>
    <tripinfo id="veh38" depart="103.00" departLane="-195104960#2_1" departPos="5.10" departSpeed="8.64" departDelay="0.22" arrival="240.00" arrivalLane="-165415464#1_1" arrivalPos="49.15" arrivalSpeed="8.36" duration="137.00" routeLength="1243.84" waitingTime="3.00" waitingCount="1" stopTime="0.00" timeLoss="20.12" rerouteNo="1" devices="tripinfo_veh38 routing_veh38" vType="veh_passenger" speedFactor="1.04" vaporized=""/>
    <tripinfo id="truck1" depart="5.00" departLane="340498982#8_1" departPos="6.60" departSpeed="0.00" departDelay="0.94" arrival="241.00" arrivalLane="310176513#6_1" arrivalPos="58.84" arrivalSpeed="7.14" duration="236.00" routeLength="1799.57" waitingTime="53.00" waitingCount="2" stopTime="0.00" timeLoss="95.13" rerouteNo="1" devices="tripinfo_truck1 routing_truck1" vType="truck_truck" speedFactor="1.00" vaporized=""/>
    <tripinfo id="truck8" depart="33.00" departLane="454285423#0_0" departPos="6.60" departSpeed="2.78" departDelay="0.54" arrival="241.00" arrivalLane="31313667#3_1" arrivalPos="24.56" arrivalSpeed="7.17" duration="208.00" routeLength="1130.00" waitingTime="34.00" waitingCount="2" stopTime="0.00" timeLoss="63.64" rerouteNo="1" devices="tripinfo_truck8 routing_truck8" vType="truck_truck" speedFactor="1.00" vaporized=""/>
    <tripinfo id="moto13" depart="106.00" departLane="-176043806#0_1" departPos="2.30" departSpeed="0.00" departDelay="0.52" arrival="244.00" arrivalLane="-437325047#5_1" arrivalPos="13.19" arrivalSpeed="6.78" duration="138.00" routeLength="785.34" waitingTime="35.00" waitingCount="1" stopTime="0.00" timeLoss="72.41" rerouteNo="1" devices="tripinfo_moto13 routing_moto13" vType="moto_motorcycle" speedFactor="1.01" vaporized=""/>
    <personinfo id="ped40" depart="85.91" type="ped_pedestrian">
        <walk depart="86.00" departPos="0.00" arrival="245.00" arrivalPos="2.23" duration="159.00" routeLength="158.79" timeLoss="39.40" maxSpeed="1.33"/>
    </personinfo>
    <tripinfo id="veh10" depart="28.00" departLane="-195105328#1_1" departPos="5.10" departSpeed="0.00" departDelay="0.95" arrival="246.00" arrivalLane="-225400578#2_1" arrivalPos="155.25" arrivalSpeed="6.88" duration="218.00" routeLength="1494.33" waitingTime="32.00" waitingCount="1" stopTime="0.00" timeLoss="56.26" rerouteNo="1" devices="tripinfo_veh10 routing_veh10" vType="veh_passenger" speedFactor="0.94" vaporized=""/>
    <tripinfo id="moto16" depart="130.00" departLane="-24992424#5_3" departPos="2.30" departSpeed="0.00" departDelay="0.18" arrival="250.00" arrivalLane="344594962_2" arrivalPos="42.13" arrivalSpeed="10.68" duration="120.00" routeLength="1175.35" waitingTime="0.00" waitingCount="0" stopTime="0.00" timeLoss="22.81" rerouteNo="1" devices="tripinfo_moto16 routing_moto16" vType="moto_motorcycle" speedFactor="0.89" vaporized=""/>
    <tripinfo id="bus2" depart="17.00" departLane="4773029#0_1" departPos="12.10" departSpeed="8.33" departDelay="0.77" arrival="251.00" arrivalLane="-19002363#3_1" arrivalPos="34.29" arrivalSpeed="8.08" duration="234.00" routeLength="1743.36" waitingTime="35.00" waitingCount="3" stopTime="0.00" timeLoss="78.39" rerouteNo="1" devices="tripinfo_bus2 routing_bus2" vType="bus_bus" speedFactor="1.00" vaporized=""/>
    <tripinfo id="bike1" depart="5.00" departLane="-4610472#0_1" departPos="1.70" departSpeed="0.00" departDelay="0.47" arrival="254.00" arrivalLane="-454285423#3_0" arrivalPos="101.69" arrivalSpeed="1.85" duration="249.00" routeLength="959.08" waitingTime="17.00" waitingCount="1" stopTime="0.00" timeLoss="47.39" rerouteNo="1" devices="tripinfo_bike1 routing_bike1" vType="bike_bicycle" speedFactor="0.83" vaporized=""/>
    <tripinfo id="truck5" depart="21.00" departLane="28251222#1_1" departPos="6.60" departSpeed="0.00" departDelay="0.72" arrival="254.00" arrivalLane="23851930_2" arrivalPos="11.60" arrivalSpeed="7.85" duration="233.00" routeLength="1455.21" waitingTime="76.00" waitingCount="4" stopTime="0.00" timeLoss="113.22" rerouteNo="1" devices="tripinfo_truck5 routing_truck5" vType="truck_truck" speedFactor="1.00" vaporized=""/>
    <tripinfo id="truck25" depart="102.00" departLane="-312176585#2_0" departPos="6.60" departSpeed="2.78" departDelay="0.58" arrival="254.00" arrivalLane="-136571494#2_1" arrivalPos="67.43" arrivalSpeed="8.27" duration="152.00" routeLength="930.84" waitingTime="23.00" waitingCount="1" stopTime="0.00" timeLoss="52.11" rerouteNo="1" devices="tripinfo_truck25 routing_truck25" vType="truck_truck" speedFactor="1.00" vaporized=""/>
    <tripinfo id="truck29" depart="118.00" departLane="534588621#0_2" departPos="6.60" departSpeed="0.00" departDelay="0.35" arrival="256.00" arrivalLane="194962398#1_1" arrivalPos="104.40" arrivalSpeed="8.21" duration="138.00" routeLength="1241.15" waitingTime="6.00" waitingCount="1" stopTime="0.00" timeLoss="27.51" rerouteNo="1" devices="tripinfo_truck29 routing_truck29" vType="truck_truck" speedFactor="1.00" vaporized=""/>
    <tripinfo id="bus5" depart="41.00" departLane="28251222#1_1" departPos="12.10" departSpeed="0.00" departDelay="0.43" arrival="256.00" arrivalLane="23851930_2" arrivalPos="11.60" arrivalSpeed="8.23" duration="215.00" routeLength="1449.71" waitingTime="57.00" waitingCount="3" stopTime="0.00" timeLoss="95.93" rerouteNo="1" devices="tripinfo_bus5 routing_bus5" vType="bus_bus" speedFactor="1.00" vaporized=""/>
    <tripinfo id="bike24" depart="109.00" departLane="288726033#0_1" departPos="1.70" departSpeed="5.56" departDelay="0.39" arrival="259.00" arrivalLane="128396190#3_1" arrivalPos="90.07" arrivalSpeed="5.18" duration="150.00" routeLength="781.92" waitingTime="0.00" waitingCount="0" stopTime="0.00" timeLoss="8.38" rerouteNo="1" devices="tripinfo_bike24 routing_bike24" vType="bike_bicycle" speedFactor="0.99" vaporized=""/>
    <tripinfo id="bus8" depart="65.00" departLane="454285423#0_0" departPos="12.10" departSpeed="2.78" departDelay="0.09" arrival="260.00" arrivalLane="31313667#3_1" arrivalPos="24.56" arrivalSpeed="8.13" duration="195.00" routeLength="1124.50" waitingTime="26.00" waitingCount="2" stopTime="0.00" timeLoss="51.94" rerouteNo="1" devices="tripinfo_bus8 routing_bus8" vType="bus_bus" speedFactor="1.00" vaporized=""/>
    <tripinfo id="moto0" depart="0.00" departLane="4790799_0" departPos="2.30" departSpeed="14.03" departDelay="0.00" arrival="262.00" arrivalLane="-19002363#3_1" arrivalPos="34.29" arrivalSpeed="7.29" duration="262.00" routeLength="2009.70" waitingTime="53.00" waitingCount="4" stopTime="0.00" timeLoss="98.75" rerouteNo="1" devices="tripinfo_moto0 routing_moto0" vType="moto_motorcycle" speedFactor="1.01" vaporized=""/>
    <tripinfo id="veh5" depart="14.00" departLane="-136571494#1_1" departPos="5.10" departSpeed="0.00" departDelay="0.48" arrival="265.00" arrivalLane="-4402228_1" arrivalPos="69.23" arrivalSpeed="14.69" duration="251.00" routeLength="2127.90" waitingTime="27.00" waitingCount="3" stopTime="0.00" timeLoss="84.38" rerouteNo="1" devices="tripinfo_veh5 routing_veh5" vType="veh_passenger" speedFactor="1.12" vaporized=""/>
    <tripinfo id="veh33" depart="90.00" departLane="60333313_4" departPos="0.20" departSpeed="0.00" departDelay="0.75" arrival="265.00" arrivalLane="202156991#2_0" arrivalPos="1.09" arrivalSpeed="2.23" duration="175.00" routeLength="1128.72" waitingTime="13.00" waitingCount="2" stopTime="0.00" timeLoss="56.49" rerouteNo="1" devices="tripinfo_veh33 routing_veh33" vType="veh_passenger" speedFactor="0.90" vaporized=""/>
    <tripinfo id="veh0" depart="0.00" departLane="-51167934#4_1" departPos="5.10" departSpeed="8.83" departDelay="0.00" arrival="267.00" arrivalLane="-4612968#3_1" arrivalPos="6.95" arrivalSpeed="8.35" duration="267.00" routeLength="1720.77" waitingTime="51.00" waitingCount="5" stopTime="0.00" timeLoss="101.60" rerouteNo="1" devices="tripinfo_veh0 routing_veh0" vType="veh_passenger" speedFactor="1.06" vaporized=""/>
    <personinfo id="ped45" depart="96.65" type="ped_pedestrian">
        <walk depart="97.00" departPos="0.00" arrival="273.00" arrivalPos="0.99" duration="176.00" routeLength="213.10" timeLoss="34.38" maxSpeed="1.50"/>
    </personinfo>
    <tripinfo id="truck9" depart="37.00" departLane="-560370523_1" departPos="6.60" departSpeed="0.00" departDelay="0.49" arrival="273.00" arrivalLane="-24993933#0_1" arrivalPos="142.97" arrivalSpeed="7.58" duration="236.00" routeLength="1745.11" waitingTime="7.00" waitingCount="2" stopTime="0.00" timeLoss="40.46" rerouteNo="1" devices="tripinfo_truck9 routing_truck9" vType="truck_truck" speedFactor="1.00" vaporized=""/>
    <tripinfo id="veh23" depart="63.00" departLane="301241483#3_4" departPos="1.55" departSpeed="0.00" departDelay="0.79" arrival="275.00" arrivalLane="289966845_4" arrivalPos="43.14" arrivalSpeed="15.48" duration="212.00" routeLength="1842.64" waitingTime="56.00" waitingCount="4" stopTime="0.00" timeLoss="98.29" rerouteNo="1" devices="tripinfo_veh23 routing_veh23" vType="veh_passenger" speedFactor="1.18" vaporized=""/>
    <tripinfo id="veh13" depart="36.00" departLane="23813206#0_1" departPos="5.10" departSpeed="0.00" departDelay="0.84" arrival="278.00" arrivalLane="82652397#0_2" arrivalPos="107.44" arrivalSpeed="13.39" duration="242.00" routeLength="1647.46" waitingTime="82.00" waitingCount="4" stopTime="0.00" timeLoss="119.59" rerouteNo="1" devices="tripinfo_veh13 routing_veh13" vType="veh_passenger" speedFactor="1.02" vaporized=""/>
    <tripinfo id="moto26" depart="211.00" departLane="136571494#3_1" departPos="2.30" departSpeed="0.00" departDelay="0.04" arrival="279.00" arrivalLane="-43156728#0_2" arrivalPos="79.52" arrivalSpeed="12.02" duration="68.00" routeLength="404.02" waitingTime="11.00" waitingCount="1" stopTime="0.00" timeLoss="23.52" rerouteNo="1" devices="tripinfo_moto26 routing_moto26" vType="moto_motorcycle" speedFactor="0.97" vaporized=""/>
    <tripinfo id="veh49" depart="134.00" departLane="202157002#1_2" departPos="5.10" departSpeed="0.00" departDelay="1.47" arrival="281.00" arrivalLane="-43156728#0_2" arrivalPos="79.52" arrivalSpeed="14.29" duration="147.00" routeLength="853.43" waitingTime="42.00" waitingCount="4" stopTime="0.00" timeLoss="73.49" rerouteNo="1" devices="tripinfo_veh49 routing_veh49" vType="veh_passenger" speedFactor="1.10" vaporized=""/>
    <tripinfo id="veh41" depart="111.00" departLane="-168943640#2_1" departPos="5.10" departSpeed="15.11" departDelay="0.11" arrival="282.00" arrivalLane="171826985#1_3" arrivalPos="8.51" arrivalSpeed="14.62" duration="171.00" routeLength="1946.85" waitingTime="0.00" waitingCount="0" stopTime="0.00" timeLoss="39.42" rerouteNo="1" devices="tripinfo_veh41 routing_veh41" vType="veh_passenger" speedFactor="1.09" vaporized=""/>
    <tripinfo id="truck4" depart="17.00" departLane="-128396190#3_1" departPos="6.60" departSpeed="0.00" departDelay="0.77" arrival="282.00" arrivalLane="-35578576#1_1" arrivalPos="2.35" arrivalSpeed="4.87" duration="265.00" routeLength="2013.68" waitingTime="28.00" waitingCount="4" stopTime="0.00" timeLoss="85.38" rerouteNo="1" devices="tripinfo_truck4 routing_truck4" vType="truck_truck" speedFactor="1.00" vaporized=""/>
    <tripinfo id="bike18" depart="82.00" departLane="4612970#0_1" departPos="1.70" departSpeed="5.56" departDelay="0.54" arrival="283.00" arrivalLane="29177662#1_1" arrivalPos="10.50" arrivalSpeed="5.39" duration="201.00" routeLength="742.22" waitingTime="44.00" waitingCount="3" stopTime="0.00" timeLoss="66.50" rerouteNo="1" devices="tripinfo_bike18 routing_bike18" vType="bike_bicycle" speedFactor="1.01" vaporized=""/>
    <tripinfo id="truck19" depart="78.00" departLane="-195104960#2_1" departPos="6.60" departSpeed="8.33" departDelay="0.92" arrival="285.00" arrivalLane="-492340367#0_1" arrivalPos="102.30" arrivalSpeed="8.29" duration="207.00" routeLength="1387.48" waitingTime="12.00" waitingCount="2" stopTime="0.00" timeLoss="62.49" rerouteNo="1" devices="tripinfo_truck19 routing_truck19" vType="truck_truck" speedFactor="1.00" vaporized=""/>
    <tripinfo id="bike37" depart="168.00" departLane="30721660#2_1" departPos="1.70" departSpeed="0.00" departDelay="0.56" arrival="285.00" arrivalLane="137085411#1_0" arrivalPos="22.26" arrivalSpeed="5.06" duration="117.00" routeLength="579.30" waitingTime="0.00" waitingCount="0" stopTime="0.00" timeLoss="11.47" rerouteNo="1" devices="tripinfo_bike37 routing_bike37" vType="bike_bicycle" speedFactor="1.01" vaporized=""/>
    <tripinfo id="moto34" depart="276.00" departLane="195105328#1_1" departPos="2.30" departSpeed="0.00" departDelay="0.13" arrival="287.00" arrivalLane="-292429063#1_1" arrivalPos="37.24" arrivalSpeed="7.01" duration="11.00" routeLength="69.28" waitingTime="0.00" waitingCount="0" stopTime="0.00" timeLoss="1.95" rerouteNo="0" devices="tripinfo_moto34 routing_moto34" vType="moto_motorcycle" speedFactor="0.98" vaporized=""/>
    <tripinfo id="veh57" depart="157.00" departLane="490365295#0_2" departPos="5.10" departSpeed="0.00" departDelay="2.83" arrival="292.00" arrivalLane="4613293_1" arrivalPos="415.70" arrivalSpeed="8.28" duration="135.00" routeLength="962.54" waitingTime="17.00" waitingCount="1" stopTime="0.00" timeLoss="39.36" rerouteNo="1" devices="tripinfo_veh57 routing_veh57" vType="veh_passenger" speedFactor="1.08" vaporized=""/>
    <tripinfo id="moto21" depart="171.00" departLane="-534588621#1_2" departPos="2.30" departSpeed="0.00" departDelay="0.61" arrival="293.00" arrivalLane="-4612968#2_1" arrivalPos="34.87" arrivalSpeed="8.39" duration="122.00" routeLength="560.09" waitingTime="40.00" waitingCount="6" stopTime="0.00" timeLoss="79.39" rerouteNo="1" devices="tripinfo_moto21 routing_moto21" vType="moto_motorcycle" speedFactor="1.06" vaporized=""/>